LAMMPS Description

         166  atoms
         168  bonds
         297  angles
         450  dihedrals
          20  impropers

          28  atom types
          51  bond types
         111  angle types
         182  dihedral types
           9  improper types

 36.840194 64.211568 xlo xhi
 41.013691 68.385058 ylo yhi
 29.768095 57.139462 zlo zhi

Masses

   1  14.007
   2   1.008
   5  12.011
   6   1.008
   7  12.011
   8   1.008
  10  12.011
  12   1.008
  16  15.999
  17   1.008
  22  12.011
  23  15.999
  24  14.007
  49  12.011
  52  12.011
  53  15.999
  57  14.007
  58  12.011
  61  12.011
  63  12.011
  91   1.008
  94  12.011
  95   1.008
 103   1.008
 128  12.011
 131  14.007
 133  12.011
 135  12.011

Pair Coeffs

   1  0.2000  1.8500  0.2000  1.8500
   2  0.0460  0.2245  0.0460  0.2245
   5  0.0320  2.0000  0.0320  2.0000
   6  0.0220  1.3200  0.0220  1.3200
   7  0.0560  2.0100  0.0560  2.0100
   8  0.0340  1.3400  0.0340  1.3400
  10  0.0700  1.9924  0.0700  1.9924
  12  0.0300  1.3582  0.0300  1.3582
  16  0.1521  1.7700  0.1521  1.7700
  17  0.0460  0.2245  0.0460  0.2245
  22  0.1100  2.0000  0.1100  2.0000
  23  0.1200  1.7000  0.1200  1.7000
  24  0.2000  1.8500  0.2000  1.8500
  49  0.0560  2.0100  0.0560  2.0100
  52  0.0700  2.0000  0.0700  2.0000
  53  0.1200  1.7000  0.1200  1.7000
  57  0.2000  1.8500  0.2000  1.8500
  58  0.0550  2.1750  0.0550  2.1750
  61  0.0200  2.2750  0.0200  2.2750
  63  0.0550  2.1750  0.0550  2.1750
  91  0.0450  1.3400  0.0450  1.3400
  94  0.0780  2.0400  0.0780  2.0400
  95  0.0240  1.3400  0.0240  1.3400
 103  0.0280  1.3400  0.0280  1.3400
 128  0.0730  1.9900  0.0730  1.9900
 131  0.2000  1.8500  0.2000  1.8500
 133  0.0990  1.8600  0.0990  1.8600
 135  0.0730  1.9900  0.0730  1.9900

Bond Coeffs

  1  200.0  1.480
  2  330.0  1.080
  3  230.0  1.490
  4  340.0  1.080
  5  545.0  0.960
  6  305.0  1.375
  7  440.0  0.997
  8  309.0  1.111
  9  370.0  1.345
 10  200.0  1.522
 11  260.0  1.300
 12  309.0  1.111
 13  222.5  1.537
 14  309.0  1.111
 15  620.0  1.230
 16  222.5  1.538
 17  525.0  1.260
 18  309.0  1.111
 19  322.0  1.111
 20  330.0  1.080
 21  222.5  1.500
 22  222.5  1.538
 23  250.0  1.490
 24  320.0  1.430
 25  270.0  1.370
 26  350.0  1.430
 27  222.5  1.538
 28  403.0  1.040
 29  334.3  1.411
 30  525.0  1.260
 31  309.0  1.111
 32  428.0  1.420
 33  375.0  1.492
 34  270.0  1.370
 35  300.0  1.360
 36  305.0  1.375
 37  320.0  1.434
 38  222.5  1.527
 39  250.0  1.490
 40  200.0  1.522
 41  250.0  1.490
 42  537.5  0.976
 43  340.0  1.080
 44  300.0  1.360
 45  320.0  1.455
 46  330.0  1.080
 47  222.5  1.537
 48  222.5  1.530
 49  320.0  1.430
 50  350.0  1.365
 51  360.0  1.385

Angle Coeffs

   1   51.50  107.50   0.00  0.0000
   2   44.00  109.50   0.00  0.0000
   3   80.00  116.50   0.00  0.0000
   4   51.80  107.50   0.00  0.0000
   5   35.00  111.00   0.00  0.0000
   6   35.50  109.00   5.40  1.8020
   7   49.30  107.50   0.00  0.0000
   8   30.00  120.00  22.00  2.1525
   9   40.00  120.00  35.00  2.4162
  10   45.20  120.00   0.00  0.0000
  11   48.00  108.00   0.00  0.0000
  12   34.00  123.00   0.00  0.0000
  13   45.80  122.30   0.00  0.0000
  14   70.00  113.50   0.00  0.0000
  15   45.20  120.00   0.00  0.0000
  16   50.00  109.50   0.00  0.0000
  17   80.00  122.50   0.00  0.0000
  18   80.00  121.00   0.00  0.0000
  19   26.50  110.10  22.53  2.1790
  20   40.00  118.00  50.00  2.3880
  21   52.00  108.00   0.00  0.0000
  22   33.00  109.50  30.00  2.1630
  23   48.00  108.00   0.00  0.0000
  24   26.50  110.10  22.53  2.1790
  25   35.50  109.00   5.40  1.8020
  26   33.43  110.10  22.53  2.1790
  27   60.00  117.00   0.00  0.0000
  28   26.50  110.10  22.53  2.1790
  29   35.50  109.00   5.40  1.8020
  30   26.50  110.10  22.53  2.1790
  31   50.00  108.20   0.00  0.0000
  32   26.50  110.10  22.53  2.1790
  33   35.00  111.00   0.00  0.0000
  34   35.50  109.00   5.40  1.8020
  35   26.50  110.10  22.53  2.1790
  36   33.00  109.50  30.00  2.1630
  37   53.35  108.50   8.00  2.5610
  38   33.43  110.10  22.53  2.1790
  39   57.50  106.00   0.00  0.0000
  40   70.00  113.50   0.00  0.0000
  41   34.50  110.10  22.53  2.1790
  42   35.50  108.40   5.40  1.8020
  43   48.00  108.00   0.00  0.0000
  44   80.00  116.50   0.00  0.0000
  45   50.00  109.50   0.00  0.0000
  46   50.00  107.00   0.00  0.0000
  47   35.00  117.00   0.00  0.0000
  48   34.50  110.10  22.53  2.1790
  49   50.00  120.00   0.00  0.0000
  50   52.00  108.00   0.00  0.0000
  51   75.70  110.10   0.00  0.0000
  52   58.35  114.00   0.00  0.0000
  53   30.00  126.70   0.00  0.0000
  54  130.00  133.50   0.00  0.0000
  55   28.00  126.00   0.00  0.0000
  56   95.00  107.40   0.00  0.0000
  57   50.00  113.20   0.00  0.0000
  58   50.00  110.00   0.00  0.0000
  59  130.00  129.50   0.00  0.0000
  60   26.50  110.10  22.53  2.1790
  61   52.00  108.00   0.00  0.0000
  62   30.00  120.00  22.00  2.1525
  63   65.00  108.00   0.00  0.0000
  64   43.70  110.00   0.00  0.0000
  65   30.00  109.50  20.00  2.0740
  66   52.00  108.00   0.00  0.0000
  67   20.00  112.50   0.00  0.0000
  68   52.00  108.00   0.00  0.0000
  69   70.00  113.50   0.00  0.0000
  70   48.00  112.00   0.00  0.0000
  71   80.00  118.00   0.00  0.0000
  72  100.00  114.20   0.00  0.0000
  73   70.00  108.50   0.00  0.0000
  74   50.00  112.00   0.00  0.0000
  75   58.35  113.50  11.16  2.5610
  76   40.00  118.00  50.00  2.3880
  77   75.70  110.10   0.00  0.0000
  78   35.00  111.00   0.00  0.0000
  79   45.90  108.89   0.00  0.0000
  80   50.00  107.00   0.00  0.0000
  81   35.00  117.00   0.00  0.0000
  82   50.00  120.00   0.00  0.0000
  83   55.00  109.50   0.00  0.0000
  84   85.00  112.00   0.00  0.0000
  85   85.00  110.50  25.00  2.2400
  86   30.00  122.00  22.00  2.1460
  87   30.00  120.00  22.00  2.1525
  88   30.00  120.00  22.00  2.1525
  89   50.00  107.00   0.00  0.0000
  90   50.00  109.50   0.00  0.0000
  91   67.70  110.00   0.00  0.0000
  92  100.00  124.00  70.00  2.2250
  93   70.00  110.80   0.00  0.0000
  94   80.00  122.50   0.00  0.0000
  95   60.00  117.00   0.00  0.0000
  96   80.00  116.50   0.00  0.0000
  97   70.00  108.50   0.00  0.0000
  98   35.00  118.00   0.00  0.0000
  99   70.00  110.50   0.00  0.0000
 100   52.00  112.30   0.00  0.0000
 101   52.00  108.00   0.00  0.0000
 102   80.00  121.00   0.00  0.0000
 103   36.00  115.00   0.00  0.0000
 104   30.00  127.00   0.00  0.0000
 105   85.00  108.00   0.00  0.0000
 106   32.00  125.00  25.00  2.1730
 107   32.00  125.00  25.00  2.1770
 108   28.00  126.00   0.00  0.0000
 109   85.00  106.40  25.00  2.2610
 110   40.00  120.00  35.00  2.4162
 111   40.00  118.00  50.00  2.3880

Dihedral Coeffs

   1  0.20  3    0    1  0.5
   2  0.20  3    0    2  0.5
   3  0.00  1    0    3  0.5
   4  0.10  3    0    4  0.5
   5  0.10  3    0    5  0.5
   6  0.10  3    0    6  0.5
   7  2.50  2  180    7  0.5
   8  0.17  3  180    8  0.5
   9  0.20  3    0    9  0.5
  10  0.20  3    0   10  0.5
  11  0.00  1    0   11  0.5
  12  3.10  2  180   12  0.5
  13  4.20  2  180   13  0.5
  14  1.40  1    0   14  0.5
  15  0.00  6    0   15  0.5
  16  0.20  3    0   16  0.5
  17  4.20  2  180   17  0.5
  18  3.10  2  180   18  0.5
  19  2.40  2  180   19  0.5
  20  4.20  2  180   20  0.5
  21  4.20  2  180   21  0.5
  22  4.20  2  180   22  0.5
  23  0.99  2  180   23  0.5
  24  1.80  1    0   24  0.5
  25  0.00  1    0   25  0.5
  26  2.50  2  180   26  0.5
  27  0.20  3    0   27  0.5
  28  0.60  1    0   28  0.5
  29  0.00  1    0   29  0.5
  30  0.00  1    0   30  0.5
  31  2.50  2  180   31  0.5
  32  0.00  1    0   32  0.5
  33  0.00  1    0   33  0.5
  34  1.57  3  180   34  0.5
  35  3.10  2  180   35  0.5
  36  0.99  2  180   36  0.5
  37  3.10  2  180   37  0.5
  38  0.20  1  180   38  0.5
  39  2.50  2  180   39  0.5
  40  0.38  3    0   40  0.5
  41  0.20  3    0   41  0.5
  42  0.00  1    0   42  0.5
  43  0.00  1    0   43  0.5
  44  0.30  4    0   44  0.5
  45  1.46  3    0   45  0.5
  46  0.20  3    0   46  0.5
  47  0.20  3    0   47  0.5
  48  1.40  1    0   48  0.5
  49  0.05  6  180   49  0.5
  50  0.20  3    0   50  0.5
  51  0.80  3    0   51  0.5
  52  0.80  3    0   52  0.5
  53  0.00  3  180   53  0.5
  54  0.30  4    0   54  0.5
  55 -0.30  4    0   55  0.5
  56  0.14  3    0   56  0.5
  57  0.14  3    0   57  0.5
  58  0.14  3    0   58  0.5
  59  0.16  3    0   59  0.5
  60  0.16  3    0   60  0.5
  61  0.10  3    0   61  0.5
  62  0.14  3    0   62  0.5
  63  0.14  3    0   63  0.5
  64  2.50  2  180   64  0.5
  65  0.16  3    0   65  0.5
  66  0.10  3    0   66  0.5
  67  0.60  2    0   67  0.5
  68  0.14  3    0   68  0.5
  69  0.60  2    0   69  0.5
  70  0.14  3    0   70  0.5
  71  0.16  3    0   71  0.5
  72  0.14  3    0   72  0.5
  73  1.76  3    0   73  0.5
  74  0.59  3  180   74  0.5
  75  0.19  3    0   75  0.5
  76  0.05  6  180   76  0.5
  77  0.00  1    0   77  0.5
  78  0.19  3    0   78  0.5
  79  1.60  3  180   79  0.5
  80  0.05  6  180   80  0.5
  81  0.17  3    0   81  0.5
  82  0.20  3    0   82  0.5
  83  0.25  3    0   83  0.5
  84  0.20  3    0   84  0.5
  85  0.20  3    0   85  0.5
  86  0.20  3    0   86  0.5
  87  1.40  1    0   87  0.5
  88  0.14  3    0   88  0.5
  89  0.20  3    0   89  0.5
  90  0.99  3  180   90  0.5
  91  0.20  3    0   91  0.5
  92  0.32  3    0   92  0.5
  93  0.20  1  180   93  0.5
  94  0.00  1    0   94  0.5
  95  2.50  2  180   95  0.5
  96  0.00  1    0   96  0.5
  97  0.00  1    0   97  0.5
  98  2.50  2  180   98  0.5
  99  0.00  1    0   99  0.5
 100  1.80  1    0  100  0.5
 101  0.59  3    0  101  0.5
 102  0.00  1    0  102  0.5
 103  0.20  3    0  103  0.5
 104  0.00  1    0  104  0.5
 105  0.20  3    0  105  0.5
 106  0.33  3  180  106  0.5
 107  1.17  3    0  107  0.5
 108  0.19  3  180  108  0.5
 109  0.20  3    0  109  0.5
 110  3.00  2  180  110  0.5
 111  1.20  2  180  111  0.5
 112  0.20  3    0  112  0.5
 113  0.01  3    0  113  0.5
 114  4.00  2  180  114  0.5
 115  6.50  2  180  115  0.5
 116  0.05  2  180  116  0.5
 117  3.00  2  180  117  0.5
 118  3.00  2  180  118  0.5
 119  2.60  2  180  119  0.5
 120  2.80  2  180  120  0.5
 121  3.00  2  180  121  0.5
 122  5.00  2  180  122  0.5
 123  0.85  2  180  123  0.5
 124  3.00  2  180  124  0.5
 125  3.00  2  180  125  0.5
 126  3.10  2  180  126  0.5
 127  4.20  2  180  127  0.5
 128  4.20  2  180  128  0.5
 129  4.20  2  180  129  0.5
 130  0.05  6  180  130  0.5
 131  0.05  6  180  131  0.5
 132  0.05  6  180  132  0.5
 133  0.20  3    0  133  0.5
 134  0.04  3    0  134  0.5
 135  0.60  1    0  135  0.5
 136  1.58  3    0  136  0.5
 137  1.80  1    0  137  0.5
 138  0.40  1    0  138  0.5
 139  0.00  1    0  139  0.5
 140  0.30  4    0  140  0.5
 141  0.00  1    0  141  0.5
 142  0.00  1    0  142  0.5
 143  0.59  3  180  143  0.5
 144  0.80  3    0  144  0.5
 145  0.00  3  180  145  0.5
 146  0.30  4    0  146  0.5
 147 -0.30  4    0  147  0.5
 148  0.14  3    0  148  0.5
 149  0.10  3    0  149  0.5
 150  0.10  3    0  150  0.5
 151  0.10  3    0  151  0.5
 152  2.50  2  180  152  0.5
 153  0.60  2    0  153  0.5
 154  0.14  3    0  154  0.5
 155  0.60  2    0  155  0.5
 156  0.20  3    0  156  0.5
 157  0.19  3    0  157  0.5
 158  2.50  2  180  158  0.5
 159  0.60  1    0  159  0.5
 160  0.00  1    0  160  0.5
 161  2.50  2  180  161  0.5
 162  0.00  1    0  162  0.5
 163  0.39  3  180  163  0.5
 164  2.50  2  180  164  0.5
 165  2.50  2  180  165  0.5
 166  4.00  2  180  166  0.5
 167  4.00  2  180  167  0.5
 168  6.00  2  180  168  0.5
 169  1.17  3  180  169  0.5
 170  6.50  2  180  170  0.5
 171  5.00  2  180  171  0.5
 172  0.40  2  180  172  0.5
 173  3.00  2  180  173  0.5
 174  4.00  2  180  174  0.5
 175  0.20  2  180  175  0.5
 176  3.00  2  180  176  0.5
 177  3.00  2  180  177  0.5
 178  4.20  2  180  178  0.5
 179  3.00  2  180  179  0.5
 180  2.40  2  180  180  0.5
 181  0.20  1  180  181  0.5
 182  0.00  1    0  182  0.5

Improper Coeffs

 1  120.0  0.0  1
 2   96.0  0.0  2
 3    0.0  0.0  3
 4   20.0  0.0  4
 5  120.0  0.0  5
 6  120.0  0.0  6
 7  120.0  0.0  7
 8   96.0  0.0  8
 9   20.0  0.0  9

Atoms

   1  1   1 -0.300  0.332   0.999  -0.764  0  0  0
   2  1   2  0.330  0.830   1.566  -0.109  0  0  0
   3  1   2  0.330 -0.132   0.253  -0.286  0  0  0
   4  1   2  0.330 -0.336   1.555  -1.258  0  0  0
   5  1   3  0.210  1.278   0.435  -1.719  0  0  0
   6  1   4  0.100  1.757   1.254  -2.235  0  0  0
   7  1   5 -0.180  2.345  -0.382  -0.989  0  0  0
   8  1   6  0.090  2.004  -1.321  -0.952  0  0  0
   9  1   6  0.090  2.500   0.037  -0.007  0  0  0
  10  1   7  0.000  3.680  -0.406  -1.698  0  0  0
  11  1   7 -0.115  4.528   0.694  -1.663  0  0  0
  12  1   8  0.115  4.221   1.575  -1.118  0  0  0
  13  1   7 -0.115  5.748   0.677  -2.310  0  0  0
  14  1   8  0.115  6.393   1.542  -2.271  0  0  0
  15  1   7  0.110  6.136  -0.450  -3.004  0  0  0
  16  1   9 -0.540  7.352  -0.472  -3.649  0  0  0
  17  1  10  0.430  7.645  -1.381  -3.748  0  0  0
  18  1   7 -0.115  4.094  -1.529  -2.404  0  0  0
  19  1   8  0.115  3.447  -2.394  -2.441  0  0  0
  20  1   7 -0.115  5.313  -1.556  -3.053  0  0  0
  21  1   8  0.115  5.618  -2.438  -3.597  0  0  0
  22  1  11  0.510  0.562  -0.441  -2.742  0  0  0
  23  1  12 -0.510 -0.620  -0.750  -2.593  0  0  0
  24  1  13 -0.470  1.288  -0.839  -3.781  0  0  0
  25  1  10  0.310  2.248  -0.597  -3.914  0  0  0
  26  1   3  0.070  0.724  -1.679  -4.831  0  0  0
  27  1   4  0.090 -0.009  -2.330  -4.377  0  0  0
  28  1   5 -0.180  0.034  -0.815  -5.888  0  0  0
  29  1   6  0.090  0.706  -0.666  -6.613  0  0  0
  30  1   6  0.090 -0.289   0.109  -5.433  0  0  0
  31  1   7  0.000 -1.176  -1.473  -6.512  0  0  0
  32  1   7 -0.115 -1.085  -2.732  -7.093  0  0  0
  33  1   8  0.115 -0.132  -3.241  -7.095  0  0  0
  34  1   7 -0.115 -2.188  -3.336  -7.665  0  0  0
  35  1   8  0.115 -2.097  -4.315  -8.112  0  0  0
  36  1   7  0.110 -3.403  -2.683  -7.659  0  0  0
  37  1   9 -0.540 -4.504  -3.282  -8.226  0  0  0
  38  1  10  0.430 -4.376  -4.233  -8.247  0  0  0
  39  1   7 -0.115 -2.411  -0.836  -6.519  0  0  0
  40  1   8  0.115 -2.499   0.143  -6.071  0  0  0
  41  1   7 -0.115 -3.520  -1.433  -7.087  0  0  0
  42  1   8  0.115 -4.471  -0.922  -7.084  0  0  0
  43  1  11  0.510  1.805  -2.535  -5.484  0  0  0
  44  1  12 -0.510  2.797  -2.017  -5.997  0  0  0
  45  1  13 -0.470  1.604  -3.848  -5.461  0  0  0
  46  1  10  0.310  0.817  -4.306  -5.056  0  0  0
  47  1   3  0.070  2.560  -4.777  -6.053  0  0  0
  48  1   4  0.090  3.418  -4.209  -6.377  0  0  0
  49  1  14 -0.280  3.010  -5.808  -5.016  0  0  0
  50  1   6  0.090  3.166  -6.669  -5.500  0  0  0
  51  1   6  0.090  2.242  -5.911  -4.263  0  0  0
  52  1  15  0.620  4.302  -5.412  -4.329  0  0  0
  53  1  16 -0.760  5.298  -5.159  -5.040  0  0  0
  54  1  16 -0.760  4.318  -5.355  -3.082  0  0  0
  55  1  11  0.510  1.954  -5.485  -7.261  0  0  0
  56  1  12 -0.510  1.593  -6.661  -7.206  0  0  0
  57  1  17 -0.290  1.837  -4.752  -8.378  0  0  0
  58  1  18  0.000  2.246  -3.344  -8.515  0  0  0
  59  1   6  0.090  1.677  -2.721  -7.979  0  0  0
  60  1   6  0.090  3.258  -3.201  -8.166  0  0  0
  61  1  19  0.020  1.274  -5.289  -9.621  0  0  0
  62  1   4  0.090  0.300  -5.726  -9.459  0  0  0
  63  1  20 -0.180  1.140  -4.052 -10.513  0  0  0
  64  1   6  0.090  0.134  -3.584 -10.428  0  0  0
  65  1   6  0.090  1.334  -4.323 -11.541  0  0  0
  66  1  20 -0.180  2.163  -3.100  -9.997  0  0  0
  67  1   6  0.090  1.865  -2.063 -10.248  0  0  0
  68  1   6  0.090  3.116  -3.296 -10.464  0  0  0
  69  1  11  0.510  2.189  -6.319 -10.275  0  0  0
  70  1  12 -0.510  1.759  -7.088 -11.134  0  0  0
  71  1  13 -0.470  3.452  -6.329  -9.861  0  0  0
  72  1  10  0.310  3.822  -5.718  -9.167  0  0  0
  73  1   3  0.070  4.427  -7.265 -10.408  0  0  0
  74  1   4  0.090  4.582  -7.014 -11.446  0  0  0
  75  1  14 -0.180  5.758  -7.144  -9.663  0  0  0
  76  1   6  0.090  6.122  -6.236  -9.871  0  0  0
  77  1   6  0.090  6.417  -7.933  -9.995  0  0  0
  78  1   5 -0.280  5.621  -7.239  -8.153  0  0  0
  79  1   6  0.090  5.336  -8.173  -7.936  0  0  0
  80  1   6  0.090  4.893  -6.514  -7.823  0  0  0
  81  1  15  0.620  6.928  -6.975  -7.430  0  0  0
  82  1  16 -0.760  7.602  -5.980  -7.770  0  0  0
  83  1  16 -0.760  7.277  -7.762  -6.526  0  0  0
  84  1  11  0.510  3.912  -8.699 -10.320  0  0  0
  85  1  12 -0.510  4.168  -9.519 -11.204  0  0  0
  86  1  13 -0.470  3.185  -8.996  -9.248  0  0  0
  87  1  10  0.310  2.966  -8.345  -8.521  0  0  0
  88  1   3  0.070  2.635 -10.330  -9.043  0  0  0
  89  1   4  0.090  3.067 -10.987  -9.785  0  0  0
  90  1   3  0.140  2.992 -10.877  -7.648  0  0  0
  91  1  21  0.090  2.203 -10.609  -6.960  0  0  0
  92  1   9 -0.660  4.222 -10.300  -7.195  0  0  0
  93  1  10  0.430  4.521 -10.760  -6.408  0  0  0
  94  1  22 -0.270  3.118 -12.393  -7.676  0  0  0
  95  1  23  0.090  2.140 -12.837  -7.568  0  0  0
  96  1  23  0.090  3.751 -12.717  -6.864  0  0  0
  97  1  23  0.090  3.551 -12.700  -8.616  0  0  0
  98  1  11  0.510  1.119 -10.331  -9.204  0  0  0
  99  1  12 -0.510  0.521 -11.354  -9.536  0  0  0
 100  1  13 -0.470  0.503  -9.177  -8.967  0  0  0
 101  1  10  0.310  0.978  -8.341  -8.697  0  0  0
 102  1   5 -0.020 -0.939  -9.067  -9.092  0  0  0
 103  1  24  0.090 -1.286  -9.976  -9.564  0  0  0
 104  1  24  0.090 -1.172  -8.196  -9.685  0  0  0
 105  1  11  0.510 -1.629  -8.944  -7.748  0  0  0
 106  1  12 -0.510 -2.618  -9.629  -7.484  0  0  0
 107  1  13 -0.470 -1.107  -8.070  -6.893  0  0  0
 108  1  10  0.310 -0.306  -7.506  -7.089  0  0  0
 109  1   3  0.070 -1.677  -7.861  -5.568  0  0  0
 110  1   4  0.090 -2.637  -8.356  -5.537  0  0  0
 111  1   3  0.140 -0.784  -8.469  -4.470  0  0  0
 112  1  21  0.090 -0.535  -7.693  -3.760  0  0  0
 113  1   9 -0.660  0.423  -8.979  -5.047  0  0  0
 114  1  10  0.430  0.227  -9.776  -5.546  0  0  0
 115  1  22 -0.270 -1.512  -9.584  -3.736  0  0  0
 116  1  23  0.090 -2.058 -10.187  -4.447  0  0  0
 117  1  23  0.090 -2.202  -9.156  -3.024  0  0  0
 118  1  23  0.090 -0.795 -10.202  -3.216  0  0  0
 119  1  11  0.510 -1.876  -6.377  -5.282  0  0  0
 120  1  12 -0.510 -1.319  -5.523  -5.972  0  0  0
 121  1  13 -0.470 -2.672  -6.078  -4.262  0  0  0
 122  1  10  0.310 -3.126  -6.765  -3.700  0  0  0
 123  1   3  0.070 -2.943  -4.695  -3.885  0  0  0
 124  1   4  0.090 -2.726  -4.071  -4.739  0  0  0
 125  1   5 -0.180 -4.416  -4.528  -3.508  0  0  0
 126  1   6  0.090 -4.444  -4.408  -2.516  0  0  0
 127  1   6  0.090 -4.965  -5.401  -3.827  0  0  0
 128  1  25 -0.030 -5.056  -3.326  -4.135  0  0  0
 129  1   7 -0.150 -6.035  -3.321  -5.087  0  0  0
 130  1   8  0.220 -6.474  -4.211  -5.512  0  0  0
 131  1  26 -0.510 -6.366  -2.029  -5.415  0  0  0
 132  1  10  0.370 -7.043  -1.764  -6.074  0  0  0
 133  1  27  0.240 -5.599  -1.171  -4.672  0  0  0
 134  1  27  0.110 -4.761  -1.953  -3.853  0  0  0
 135  1  28 -0.250 -3.872  -1.309  -2.989  0  0  0
 136  1   8  0.170 -3.212  -1.873  -2.345  0  0  0
 137  1   7 -0.200 -3.845   0.072  -2.969  0  0  0
 138  1   8  0.140 -3.164   0.587  -2.307  0  0  0
 139  1  28 -0.270 -5.571   0.221  -4.650  0  0  0
 140  1   8  0.160 -6.217   0.816  -5.279  0  0  0
 141  1   7 -0.140 -4.691   0.825  -3.794  0  0  0
 142  1   8  0.140 -4.636   1.902  -3.745  0  0  0
 143  1  11  0.510 -2.056  -4.264  -2.722  0  0  0
 144  1  12 -0.510 -1.403  -3.223  -2.781  0  0  0
 145  1  13 -0.470 -2.038  -5.071  -1.667  0  0  0
 146  1  10  0.310 -2.562  -5.919  -1.606  0  0  0
 147  1   3  0.070 -1.232  -4.771  -0.490  0  0  0
 148  1   4  0.090 -1.645  -3.889  -0.021  0  0  0
 149  1   5 -0.180 -1.290  -5.933   0.503  0  0  0
 150  1   6  0.090 -2.216  -6.307   0.445  0  0  0
 151  1   6  0.090 -1.058  -5.566   1.491  0  0  0
 152  1   7  0.000 -0.322  -7.050   0.185  0  0  0
 153  1   7 -0.115 -0.270  -7.610  -1.086  0  0  0
 154  1   8  0.115 -0.935  -7.236  -1.851  0  0  0
 155  1   7 -0.115  0.612  -8.631  -1.381  0  0  0
 156  1   8  0.115  0.637  -9.054  -2.375  0  0  0
 157  1   7  0.110  1.459  -9.105  -0.401  0  0  0
 158  1   9 -0.540  2.340 -10.122  -0.692  0  0  0
 159  1  10  0.430  3.021  -9.795  -1.285  0  0  0
 160  1   7 -0.115  0.541  -7.545   1.154  0  0  0
 161  1   8  0.115  0.515  -7.120   2.147  0  0  0
 162  1   7 -0.115  1.428  -8.565   0.868  0  0  0
 163  1   8  0.115  2.091  -8.937   1.635  0  0  0
 164  1  15  0.340  0.216  -4.490  -0.878  0  0  0
 165  1  16 -0.670  0.309  -4.572  -1.870  0  0  0
 166  1  16 -0.670  0.741  -4.288  -0.051  0  0  0

Velocities

   1  0.0  0.0  0.0
   2  0.0  0.0  0.0
   3  0.0  0.0  0.0
   4  0.0  0.0  0.0
   5  0.0  0.0  0.0
   6  0.0  0.0  0.0
   7  0.0  0.0  0.0
   8  0.0  0.0  0.0
   9  0.0  0.0  0.0
  10  0.0  0.0  0.0
  11  0.0  0.0  0.0
  12  0.0  0.0  0.0
  13  0.0  0.0  0.0
  14  0.0  0.0  0.0
  15  0.0  0.0  0.0
  16  0.0  0.0  0.0
  17  0.0  0.0  0.0
  18  0.0  0.0  0.0
  19  0.0  0.0  0.0
  20  0.0  0.0  0.0
  21  0.0  0.0  0.0
  22  0.0  0.0  0.0
  23  0.0  0.0  0.0
  24  0.0  0.0  0.0
  25  0.0  0.0  0.0
  26  0.0  0.0  0.0
  27  0.0  0.0  0.0
  28  0.0  0.0  0.0
  29  0.0  0.0  0.0
  30  0.0  0.0  0.0
  31  0.0  0.0  0.0
  32  0.0  0.0  0.0
  33  0.0  0.0  0.0
  34  0.0  0.0  0.0
  35  0.0  0.0  0.0
  36  0.0  0.0  0.0
  37  0.0  0.0  0.0
  38  0.0  0.0  0.0
  39  0.0  0.0  0.0
  40  0.0  0.0  0.0
  41  0.0  0.0  0.0
  42  0.0  0.0  0.0
  43  0.0  0.0  0.0
  44  0.0  0.0  0.0
  45  0.0  0.0  0.0
  46  0.0  0.0  0.0
  47  0.0  0.0  0.0
  48  0.0  0.0  0.0
  49  0.0  0.0  0.0
  50  0.0  0.0  0.0
  51  0.0  0.0  0.0
  52  0.0  0.0  0.0
  53  0.0  0.0  0.0
  54  0.0  0.0  0.0
  55  0.0  0.0  0.0
  56  0.0  0.0  0.0
  57  0.0  0.0  0.0
  58  0.0  0.0  0.0
  59  0.0  0.0  0.0
  60  0.0  0.0  0.0
  61  0.0  0.0  0.0
  62  0.0  0.0  0.0
  63  0.0  0.0  0.0
  64  0.0  0.0  0.0
  65  0.0  0.0  0.0
  66  0.0  0.0  0.0
  67  0.0  0.0  0.0
  68  0.0  0.0  0.0
  69  0.0  0.0  0.0
  70  0.0  0.0  0.0
  71  0.0  0.0  0.0
  72  0.0  0.0  0.0
  73  0.0  0.0  0.0
  74  0.0  0.0  0.0
  75  0.0  0.0  0.0
  76  0.0  0.0  0.0
  77  0.0  0.0  0.0
  78  0.0  0.0  0.0
  79  0.0  0.0  0.0
  80  0.0  0.0  0.0
  81  0.0  0.0  0.0
  82  0.0  0.0  0.0
  83  0.0  0.0  0.0
  84  0.0  0.0  0.0
  85  0.0  0.0  0.0
  86  0.0  0.0  0.0
  87  0.0  0.0  0.0
  88  0.0  0.0  0.0
  89  0.0  0.0  0.0
  90  0.0  0.0  0.0
  91  0.0  0.0  0.0
  92  0.0  0.0  0.0
  93  0.0  0.0  0.0
  94  0.0  0.0  0.0
  95  0.0  0.0  0.0
  96  0.0  0.0  0.0
  97  0.0  0.0  0.0
  98  0.0  0.0  0.0
  99  0.0  0.0  0.0
 100  0.0  0.0  0.0
 101  0.0  0.0  0.0
 102  0.0  0.0  0.0
 103  0.0  0.0  0.0
 104  0.0  0.0  0.0
 105  0.0  0.0  0.0
 106  0.0  0.0  0.0
 107  0.0  0.0  0.0
 108  0.0  0.0  0.0
 109  0.0  0.0  0.0
 110  0.0  0.0  0.0
 111  0.0  0.0  0.0
 112  0.0  0.0  0.0
 113  0.0  0.0  0.0
 114  0.0  0.0  0.0
 115  0.0  0.0  0.0
 116  0.0  0.0  0.0
 117  0.0  0.0  0.0
 118  0.0  0.0  0.0
 119  0.0  0.0  0.0
 120  0.0  0.0  0.0
 121  0.0  0.0  0.0
 122  0.0  0.0  0.0
 123  0.0  0.0  0.0
 124  0.0  0.0  0.0
 125  0.0  0.0  0.0
 126  0.0  0.0  0.0
 127  0.0  0.0  0.0
 128  0.0  0.0  0.0
 129  0.0  0.0  0.0
 130  0.0  0.0  0.0
 131  0.0  0.0  0.0
 132  0.0  0.0  0.0
 133  0.0  0.0  0.0
 134  0.0  0.0  0.0
 135  0.0  0.0  0.0
 136  0.0  0.0  0.0
 137  0.0  0.0  0.0
 138  0.0  0.0  0.0
 139  0.0  0.0  0.0
 140  0.0  0.0  0.0
 141  0.0  0.0  0.0
 142  0.0  0.0  0.0
 143  0.0  0.0  0.0
 144  0.0  0.0  0.0
 145  0.0  0.0  0.0
 146  0.0  0.0  0.0
 147  0.0  0.0  0.0
 148  0.0  0.0  0.0
 149  0.0  0.0  0.0
 150  0.0  0.0  0.0
 151  0.0  0.0  0.0
 152  0.0  0.0  0.0
 153  0.0  0.0  0.0
 154  0.0  0.0  0.0
 155  0.0  0.0  0.0
 156  0.0  0.0  0.0
 157  0.0  0.0  0.0
 158  0.0  0.0  0.0
 159  0.0  0.0  0.0
 160  0.0  0.0  0.0
 161  0.0  0.0  0.0
 162  0.0  0.0  0.0
 163  0.0  0.0  0.0
 164  0.0  0.0  0.0
 165  0.0  0.0  0.0
 166  0.0  0.0  0.0

Bonds

   1   1    1    5
   2   2    5    6
   3   3   10    7
   4   4   13   14
   5   5   16   17
   6   6   20   18
   7   7   24   25
   8   8   28   29
   9   6   32   31
  10   6   36   41
  11   4   39   40
  12   9   43   45
  13   2   47   48
  14  10   52   49
  15  11   55   57
  16  12   59   58
  17  13   63   66
  18  14   67   66
  19  15   70   69
  20  16   75   73
  21   8   78   79
  22  17   83   81
  23   7   86   87
  24  18   90   91
  25  19   94   95
  26   9   98  100
  27  20  102  103
  28  15  106  105
  29  21  111  109
  30  22  115  111
  31  23  119  109
  32  24  121  123
  33   8  125  127
  34  25  131  129
  35  26  134  128
  36   4  137  138
  37   4  141  142
  38  15  144  143
  39  27  149  147
  40   4  153  154
  41   6  155  157
  42   6  160  152
  43  28    2    1
  44  27    7    5
  45   4   11   12
  46   6   13   15
  47   6   18   10
  48  23   22    5
  49  24   24   26
  50   8   28   30
  51   6   34   32
  52  29   37   36
  53   4   41   42
  54  15   44   43
  55  16   49   47
  56  30   52   53
  57  15   56   55
  58  12   60   58
  59  14   64   63
  60  14   68   66
  61   7   71   72
  62  31   75   76
  63   8   78   80
  64  23   84   73
  65  24   86   88
  66  32   92   90
  67  19   94   96
  68  15   99   98
  69  20  102  104
  70   7  107  108
  71  18  111  112
  72  19  115  116
  73   9  119  121
  74   2  123  124
  75  33  128  125
  76  34  131  133
  77  35  134  135
  78  36  137  135
  79  36  141  139
  80   7  145  146
  81   8  149  150
  82   6  153  152
  83   6  157  162
  84   4  160  161
  85  28    3    1
  86   8    7    8
  87   6   11   10
  88   6   15   20
  89   4   18   19
  90   9   22   24
  91   2   26   27
  92   3   31   28
  93   4   34   35
  94   5   37   38
  95   6   41   39
  96   7   45   46
  97  31   49   50
  98  17   54   52
  99  37   57   61
 100  38   61   63
 101  14   65   63
 102  39   69   61
 103  24   71   73
 104  31   75   77
 105  40   81   78
 106   9   84   86
 107   2   88   89
 108   5   92   93
 109  19   94   97
 110   7  100  101
 111  41  105  102
 112  24  107  109
 113  32  113  111
 114  19  115  117
 115  15  120  119
 116  27  125  123
 117   4  129  130
 118  42  131  132
 119  43  135  136
 120  44  139  133
 121  23  143  123
 122  24  145  147
 123   8  149  151
 124   6  155  153
 125  29  158  157
 126   4  162  163
 127  28    4    1
 128   8    7    9
 129   6   13   11
 130  29   16   15
 131   4   20   21
 132  15   23   22
 133  27   28   26
 134   4   32   33
 135   6   34   36
 136   6   39   31
 137  23   43   26
 138  24   45   47
 139  31   49   51
 140  23   55   47
 141  45   57   58
 142  46   62   61
 143  47   66   58
 144   9   69   71
 145   2   73   74
 146  48   78   75
 147  30   81   82
 148  15   85   84
 149  21   90   88
 150  22   94   90
 151  23   98   88
 152  49  100  102
 153   9  105  107
 154   2  109  110
 155   5  113  114
 156  19  115  118
 157   7  121  122
 158   8  125  126
 159  50  129  128
 160  51  133  134
 161   6  137  141
 162  43  139  140
 163   9  143  145
 164   2  147  148
 165   3  152  149
 166   4  155  156
 167   5  158  159
 168   6  162  160

Angles

   1    1    1    5    6
   2    2    2    1    4
   3    2    3    1    4
   4    3    5   22   24
   5    4    5    7   10
   6    5    7    5    6
   7    6    8    7    9
   8    7   10    7    9
   9    8   11   13   14
  10    8   13   11   12
  11    8   15   20   21
  12    9   18   10   11
  13   10   20   15   16
  14   11   24   26   27
  15   12   25   24   22
  16    3   26   43   45
  17    4   26   28   31
  18   13   28   31   39
  19   14   28   26   24
  20    8   31   39   40
  21    9   32   34   36
  22    9   34   32   31
  23    9   36   41   39
  24   15   37   36   34
  25    9   41   36   34
  26   16   43   26   27
  27   17   45   43   44
  28   18   47   55   56
  29   19   47   49   50
  30   20   49   52   53
  31   21   49   47   55
  32   22   52   49   51
  33   16   55   47   48
  34   23   57   58   60
  35   24   58   66   68
  36   25   59   58   60
  37   26   61   63   65
  38   27   61   57   55
  39   28   63   66   67
  40   29   64   63   65
  41   30   66   58   60
  42   29   67   66   68
  43   31   69   61   57
  44   17   71   69   70
  45   18   73   84   85
  46   19   73   75   76
  47   32   75   78   80
  48   33   75   73   74
  49   34   76   75   77
  50   35   78   75   77
  51   36   81   78   80
  52   16   84   73   74
  53   17   86   84   85
  54   18   88   98   99
  55   37   88   90   94
  56   38   90   94   97
  57   39   90   92   93
  58   40   90   88   86
  59   41   94   90   91
  60   42   96   94   97
  61   43  100  102  103
  62   12  101  100   98
  63   44  102  105  107
  64   45  105  102  104
  65   46  107  109  119
  66   47  108  107  109
  67   48  109  111  112
  68   49  109  107  105
  69   38  111  115  116
  70   50  111  109  119
  71   51  113  111  115
  72   42  116  115  117
  73   11  121  123  124
  74   12  122  121  119
  75    3  123  143  145
  76   52  123  125  128
  77   53  125  128  134
  78   14  125  123  121
  79   54  128  134  135
  80   55  129  131  132
  81   56  131  133  134
  82   57  133  139  141
  83   57  134  135  137
  84   58  135  134  133
  85    8  137  141  142
  86   59  139  133  131
  87    8  141  137  138
  88   11  145  147  148
  89   12  146  145  143
  90   60  147  149  150
  91   13  149  152  153
  92   61  149  147  164
  93    9  152  160  162
  94    7  152  149  150
  95   62  154  153  152
  96   62  156  155  157
  97   63  157  158  159
  98   62  161  160  162
  99   62  163  162  160
 100   64    1    5   22
 101    2    2    1    3
 102   65    4    1    5
 103   60    5    7    9
 104   13    7   10   11
 105   66    7    5   22
 106    9   10   18   20
 107    7   10    7    8
 108   62   12   11   10
 109   62   14   13   15
 110   63   15   16   17
 111   62   19   18   20