LAMMPS Description

        8200  atoms
       12200  bonds
       24200  angles
           0  dihedrals
           0  impropers

           1  atom types
           1  bond types
           1  angle types
           0  dihedral types
           0  improper types

 -15.564 15.564 xlo xhi
 -15.564 15.564 ylo yhi
 -1.771 101.91 zlo zhi

Masses

1  12.011

Pair Coeffs

1  0.07  1.9924  0.07  1.9924

Bond Coeffs

1  305.0  1.335

Angle Coeffs

1  40.0  120.0  0.0  0.0

Atoms

1  1  1  0.0   6.708   1.020   0.229  0  0  0
   2  1  1  0.0   6.564   1.715   1.460  0  0  0
   3  1  1  0.0   5.713   3.660   0.229  0  0  0
   4  1  1  0.0   6.708   1.020   2.691  0  0  0
   5  1  1  0.0   6.064   3.043   1.460  0  0  0
   6  1  1  0.0   4.827   4.768   0.229  0  0  0
   7  1  1  0.0   6.564   1.715   3.921  0  0  0
   8  1  1  0.0   5.713   3.660   2.691  0  0  0
   9  1  1  0.0   4.303   5.246   1.460  0  0  0
  10  1  1  0.0   2.471   6.319   0.229  0  0  0
  11  1  1  0.0   6.708   1.020   5.152  0  0  0
  12  1  1  0.0   6.064   3.043   3.921  0  0  0
  13  1  1  0.0   4.827   4.768   2.691  0  0  0
  14  1  1  0.0   3.118   6.026   1.460  0  0  0
  15  1  1  0.0   1.103   6.695   0.229  0  0  0
  16  1  1  0.0   6.564   1.715   6.383  0  0  0
  17  1  1  0.0   5.713   3.660   5.152  0  0  0
  18  1  1  0.0   4.303   5.246   3.921  0  0  0
  19  1  1  0.0   2.471   6.319   2.691  0  0  0
  20  1  1  0.0   0.397   6.773   1.460  0  0  0
  21  1  1  0.0  -1.715   6.564   0.229  0  0  0
  22  1  1  0.0   6.708   1.020   7.613  0  0  0
  23  1  1  0.0   6.064   3.043   6.383  0  0  0
  24  1  1  0.0   4.827   4.768   5.152  0  0  0
  25  1  1  0.0   3.118   6.026   3.921  0  0  0
  26  1  1  0.0   1.103   6.695   2.691  0  0  0
  27  1  1  0.0  -1.020   6.708   1.460  0  0  0
  28  1  1  0.0  -3.043   6.064   0.229  0  0  0
  29  1  1  0.0   6.564   1.715   8.844  0  0  0
  30  1  1  0.0   5.713   3.660   7.613  0  0  0
  31  1  1  0.0   4.303   5.246   6.383  0  0  0
  32  1  1  0.0   2.471   6.319   5.152  0  0  0
  33  1  1  0.0   0.397   6.773   3.921  0  0  0
  34  1  1  0.0  -1.715   6.564   2.691  0  0  0
  35  1  1  0.0  -3.660   5.713   1.460  0  0  0
  36  1  1  0.0  -5.246   4.303   0.229  0  0  0
  37  1  1  0.0   6.708   1.020  10.074  0  0  0
  38  1  1  0.0   6.064   3.043   8.844  0  0  0
  39  1  1  0.0   4.827   4.768   7.613  0  0  0
  40  1  1  0.0   3.118   6.026   6.383  0  0  0
  41  1  1  0.0   1.103   6.695   5.152  0  0  0
  42  1  1  0.0  -1.020   6.708   3.921  0  0  0
  43  1  1  0.0  -3.043   6.064   2.691  0  0  0
  44  1  1  0.0  -4.768   4.827   1.460  0  0  0
  45  1  1  0.0  -6.026   3.118   0.229  0  0  0
  46  1  1  0.0   6.564   1.715  11.305  0  0  0
  47  1  1  0.0   5.713   3.660  10.074  0  0  0
  48  1  1  0.0   4.303   5.246   8.844  0  0  0
  49  1  1  0.0   2.471   6.319   7.613  0  0  0
  50  1  1  0.0   0.397   6.773   6.383  0  0  0
  51  1  1  0.0  -1.715   6.564   5.152  0  0  0
  52  1  1  0.0  -3.660   5.713   3.921  0  0  0
  53  1  1  0.0  -5.246   4.303   2.691  0  0  0
  54  1  1  0.0  -6.319   2.471   1.460  0  0  0
  55  1  1  0.0  -6.773   0.397   0.229  0  0  0
  56  1  1  0.0   6.708   1.020  12.536  0  0  0
  57  1  1  0.0   6.064   3.043  11.305  0  0  0
  58  1  1  0.0   4.827   4.768  10.074  0  0  0
  59  1  1  0.0   3.118   6.026   8.844  0  0  0
  60  1  1  0.0   1.103   6.695   7.613  0  0  0
  61  1  1  0.0  -1.020   6.708   6.383  0  0  0
  62  1  1  0.0  -3.043   6.064   5.152  0  0  0
  63  1  1  0.0  -4.768   4.827   3.921  0  0  0
  64  1  1  0.0  -6.026   3.118   2.691  0  0  0
  65  1  1  0.0  -6.695   1.103   1.460  0  0  0
  66  1  1  0.0  -6.708  -1.020   0.229  0  0  0
  67  1  1  0.0   6.564   1.715  13.766  0  0  0
  68  1  1  0.0   5.713   3.660  12.536  0  0  0
  69  1  1  0.0   4.303   5.246  11.305  0  0  0
  70  1  1  0.0   2.471   6.319  10.074  0  0  0
  71  1  1  0.0   0.397   6.773   8.844  0  0  0
  72  1  1  0.0  -1.715   6.564   7.613  0  0  0
  73  1  1  0.0  -3.660   5.713   6.383  0  0  0
  74  1  1  0.0  -5.246   4.303   5.152  0  0  0
  75  1  1  0.0  -6.319   2.471   3.921  0  0  0
  76  1  1  0.0  -6.773   0.397   2.691  0  0  0
  77  1  1  0.0  -6.564  -1.715   1.460  0  0  0
  78  1  1  0.0  -5.713  -3.660   0.229  0  0  0
  79  1  1  0.0   6.708   1.020  14.997  0  0  0
  80  1  1  0.0   6.064   3.043  13.766  0  0  0
  81  1  1  0.0   4.827   4.768  12.536  0  0  0
  82  1  1  0.0   3.118   6.026  11.305  0  0  0
  83  1  1  0.0   1.103   6.695  10.074  0  0  0
  84  1  1  0.0  -1.020   6.708   8.844  0  0  0
  85  1  1  0.0  -3.043   6.064   7.613  0  0  0
  86  1  1  0.0  -4.768   4.827   6.383  0  0  0
  87  1  1  0.0  -6.026   3.118   5.152  0  0  0
  88  1  1  0.0  -6.695   1.103   3.921  0  0  0
  89  1  1  0.0  -6.708  -1.020   2.691  0  0  0
  90  1  1  0.0  -6.064  -3.043   1.460  0  0  0
  91  1  1  0.0  -4.827  -4.768   0.229  0  0  0
  92  1  1  0.0   6.564   1.715  16.228  0  0  0
  93  1  1  0.0   5.713   3.660  14.997  0  0  0
  94  1  1  0.0   4.303   5.246  13.766  0  0  0
  95  1  1  0.0   2.471   6.319  12.536  0  0  0
  96  1  1  0.0   0.397   6.773  11.305  0  0  0
  97  1  1  0.0  -1.715   6.564  10.074  0  0  0
  98  1  1  0.0  -3.660   5.713   8.844  0  0  0
  99  1  1  0.0  -5.246   4.303   7.613  0  0  0
 100  1  1  0.0  -6.319   2.471   6.383  0  0  0
 101  1  1  0.0  -6.773   0.397   5.152  0  0  0
 102  1  1  0.0  -6.564  -1.715   3.921  0  0  0
 103  1  1  0.0  -5.713  -3.660   2.691  0  0  0
 104  1  1  0.0  -4.303  -5.246   1.460  0  0  0
 105  1  1  0.0  -2.471  -6.319   0.229  0  0  0
 106  1  1  0.0   6.708   1.020  17.458  0  0  0
 107  1  1  0.0   6.064   3.043  16.228  0  0  0
 108  1  1  0.0   4.827   4.768  14.997  0  0  0
 109  1  1  0.0   3.118   6.026  13.766  0  0  0
 110  1  1  0.0   1.103   6.695  12.536  0  0  0
 111  1  1  0.0  -1.020   6.708  11.305  0  0  0
 112  1  1  0.0  -3.043   6.064  10.074  0  0  0
 113  1  1  0.0  -4.768   4.827   8.844  0  0  0
 114  1  1  0.0  -6.026   3.118   7.613  0  0  0
 115  1  1  0.0  -6.695   1.103   6.383  0  0  0
 116  1  1  0.0  -6.708  -1.020   5.152  0  0  0
 117  1  1  0.0  -6.064  -3.043   3.921  0  0  0
 118  1  1  0.0  -4.827  -4.768   2.691  0  0  0
 119  1  1  0.0  -3.118  -6.026   1.460  0  0  0
 120  1  1  0.0  -1.103  -6.695   0.229  0  0  0
 121  1  1  0.0   6.564   1.715  18.689  0  0  0
 122  1  1  0.0   5.713   3.660  17.458  0  0  0
 123  1  1  0.0   4.303   5.246  16.228  0  0  0
 124  1  1  0.0   2.471   6.319  14.997  0  0  0
 125  1  1  0.0   0.397   6.773  13.766  0  0  0
 126  1  1  0.0  -1.715   6.564  12.536  0  0  0
 127  1  1  0.0  -3.660   5.713  11.305  0  0  0
 128  1  1  0.0  -5.246   4.303  10.074  0  0  0
 129  1  1  0.0  -6.319   2.471   8.844  0  0  0
 130  1  1  0.0  -6.773   0.397   7.613  0  0  0
 131  1  1  0.0  -6.564  -1.715   6.383  0  0  0
 132  1  1  0.0  -5.713  -3.660   5.152  0  0  0
 133  1  1  0.0  -4.303  -5.246   3.921  0  0  0
 134  1  1  0.0  -2.471  -6.319   2.691  0  0  0
 135  1  1  0.0  -0.397  -6.773   1.460  0  0  0
 136  1  1  0.0   1.715  -6.564   0.229  0  0  0
 137  1  1  0.0   6.708   1.020  19.919  0  0  0
 138  1  1  0.0   6.064   3.043  18.689  0  0  0
 139  1  1  0.0   4.827   4.768  17.458  0  0  0
 140  1  1  0.0   3.118   6.026  16.228  0  0  0
 141  1  1  0.0   1.103   6.695  14.997  0  0  0
 142  1  1  0.0  -1.020   6.708  13.766  0  0  0
 143  1  1  0.0  -3.043   6.064  12.536  0  0  0
 144  1  1  0.0  -4.768   4.827  11.305  0  0  0
 145  1  1  0.0  -6.026   3.118  10.074  0  0  0
 146  1  1  0.0  -6.695   1.103   8.844  0  0  0
 147  1  1  0.0  -6.708  -1.020   7.613  0  0  0
 148  1  1  0.0  -6.064  -3.043   6.383  0  0  0
 149  1  1  0.0  -4.827  -4.768   5.152  0  0  0
 150  1  1  0.0  -3.118  -6.026   3.921  0  0  0
 151  1  1  0.0  -1.103  -6.695   2.691  0  0  0
 152  1  1  0.0   1.020  -6.708   1.460  0  0  0
 153  1  1  0.0   3.043  -6.064   0.229  0  0  0
 154  1  1  0.0   6.564   1.715  21.150  0  0  0
 155  1  1  0.0   5.713   3.660  19.919  0  0  0
 156  1  1  0.0   4.303   5.246  18.689  0  0  0
 157  1  1  0.0   2.471   6.319  17.458  0  0  0
 158  1  1  0.0   0.397   6.773  16.228  0  0  0
 159  1  1  0.0  -1.715   6.564  14.997  0  0  0
 160  1  1  0.0  -3.660   5.713  13.766  0  0  0
 161  1  1  0.0  -5.246   4.303  12.536  0  0  0
 162  1  1  0.0  -6.319   2.471  11.305  0  0  0
 163  1  1  0.0  -6.773   0.397  10.074  0  0  0
 164  1  1  0.0  -6.564  -1.715   8.844  0  0  0
 165  1  1  0.0  -5.713  -3.660   7.613  0  0  0
 166  1  1  0.0  -4.303  -5.246   6.383  0  0  0
 167  1  1  0.0  -2.471  -6.319   5.152  0  0  0
 168  1  1  0.0  -0.397  -6.773   3.921  0  0  0
 169  1  1  0.0   1.715  -6.564   2.691  0  0  0
 170  1  1  0.0   3.660  -5.713   1.460  0  0  0
 171  1  1  0.0   5.246  -4.303   0.229  0  0  0
 172  1  1  0.0   6.708   1.020  22.381  0  0  0
 173  1  1  0.0   6.064   3.043  21.150  0  0  0
 174  1  1  0.0   4.827   4.768  19.919  0  0  0
 175  1  1  0.0   3.118   6.026  18.689  0  0  0
 176  1  1  0.0   1.103   6.695  17.458  0  0  0
 177  1  1  0.0  -1.020   6.708  16.228  0  0  0
 178  1  1  0.0  -3.043   6.064  14.997  0  0  0
 179  1  1  0.0  -4.768   4.827  13.766  0  0  0
 180  1  1  0.0  -6.026   3.118  12.536  0  0  0
 181  1  1  0.0  -6.695   1.103  11.305  0  0  0
 182  1  1  0.0  -6.708  -1.020  10.074  0  0  0
 183  1  1  0.0  -6.064  -3.043   8.844  0  0  0
 184  1  1  0.0  -4.827  -4.768   7.613  0  0  0
 185  1  1  0.0  -3.118  -6.026   6.383  0  0  0
 186  1  1  0.0  -1.103  -6.695   5.152  0  0  0
 187  1  1  0.0   1.020  -6.708   3.921  0  0  0
 188  1  1  0.0   3.043  -6.064   2.691  0  0  0
 189  1  1  0.0   4.768  -4.827   1.460  0  0  0
 190  1  1  0.0   6.026  -3.118   0.229  0  0  0
 191  1  1  0.0   6.564   1.715  23.611  0  0  0
 192  1  1  0.0   5.713   3.660  22.381  0  0  0
 193  1  1  0.0   4.303   5.246  21.150  0  0  0
 194  1  1  0.0   2.471   6.319  19.919  0  0  0
 195  1  1  0.0   0.397   6.773  18.689  0  0  0
 196  1  1  0.0  -1.715   6.564  17.458  0  0  0
 197  1  1  0.0  -3.660   5.713  16.228  0  0  0
 198  1  1  0.0  -5.246   4.303  14.997  0  0  0
 199  1  1  0.0  -6.319   2.471  13.766  0  0  0
 200  1  1  0.0  -6.773   0.397  12.536  0  0  0
 201  1  1  0.0  -6.564  -1.715  11.305  0  0  0
 202  1  1  0.0  -5.713  -3.660  10.074  0  0  0
 203  1  1  0.0  -4.303  -5.246   8.844  0  0  0
 204  1  1  0.0  -2.471  -6.319   7.613  0  0  0
 205  1  1  0.0  -0.397  -6.773   6.383  0  0  0
 206  1  1  0.0   1.715  -6.564   5.152  0  0  0
 207  1  1  0.0   3.660  -5.713   3.921  0  0  0
 208  1  1  0.0   5.246  -4.303   2.691  0  0  0
 209  1  1  0.0   6.319  -2.471   1.460  0  0  0
 210  1  1  0.0   6.773  -0.397   0.229  0  0  0
 211  1  1  0.0   6.708   1.020  24.842  0  0  0
 212  1  1  0.0   6.064   3.043  23.611  0  0  0
 213  1  1  0.0   4.827   4.768  22.381  0  0  0
 214  1  1  0.0   3.118   6.026  21.150  0  0  0
 215  1  1  0.0   1.103   6.695  19.919  0  0  0
 216  1  1  0.0  -1.020   6.708  18.689  0  0  0
 217  1  1  0.0  -3.043   6.064  17.458  0  0  0
 218  1  1  0.0  -4.768   4.827  16.228  0  0  0
 219  1  1  0.0  -6.026   3.118  14.997  0  0  0
 220  1  1  0.0  -6.695   1.103  13.766  0  0  0
 221  1  1  0.0  -6.708  -1.020  12.536  0  0  0
 222  1  1  0.0  -6.064  -3.043  11.305  0  0  0
 223  1  1  0.0  -4.827  -4.768  10.074  0  0  0
 224  1  1  0.0  -3.118  -6.026   8.844  0  0  0
 225  1  1  0.0  -1.103  -6.695   7.613  0  0  0
 226  1  1  0.0   1.020  -6.708   6.383  0  0  0
 227  1  1  0.0   3.043  -6.064   5.152  0  0  0
 228  1  1  0.0   4.768  -4.827   3.921  0  0  0
 229  1  1  0.0   6.026  -3.118   2.691  0  0  0
 230  1  1  0.0   6.695  -1.103   1.460  0  0  0
 231  1  1  0.0   6.564   1.715  26.073  0  0  0
 232  1  1  0.0   5.713   3.660  24.842  0  0  0
 233  1  1  0.0   4.303   5.246  23.611  0  0  0
 234  1  1  0.0   2.471   6.319  22.381  0  0  0
 235  1  1  0.0   0.397   6.773  21.150  0  0  0
 236  1  1  0.0  -1.715   6.564  19.919  0  0  0
 237  1  1  0.0  -3.660   5.713  18.689  0  0  0
 238  1  1  0.0  -5.246   4.303  17.458  0  0  0
 239  1  1  0.0  -6.319   2.471  16.228  0  0  0
 240  1  1  0.0  -6.773   0.397  14.997  0  0  0
 241  1  1  0.0  -6.564  -1.715  13.766  0  0  0
 242  1  1  0.0  -5.713  -3.660  12.536  0  0  0
 243  1  1  0.0  -4.303  -5.246  11.305  0  0  0
 244  1  1  0.0  -2.471  -6.319  10.074  0  0  0
 245  1  1  0.0  -0.397  -6.773   8.844  0  0  0
 246  1  1  0.0   1.715  -6.564   7.613  0  0  0
 247  1  1  0.0   3.660  -5.713   6.383  0  0  0
 248  1  1  0.0   5.246  -4.303   5.152  0  0  0
 249  1  1  0.0   6.319  -2.471   3.921  0  0  0
 250  1  1  0.0   6.773  -0.397   2.691  0  0  0
 251  1  1  0.0   6.708   1.020  27.303  0  0  0
 252  1  1  0.0   6.064   3.043  26.073  0  0  0
 253  1  1  0.0   4.827   4.768  24.842  0  0  0
 254  1  1  0.0   3.118   6.026  23.611  0  0  0
 255  1  1  0.0   1.103   6.695  22.381  0  0  0
 256  1  1  0.0  -1.020   6.708  21.150  0  0  0
 257  1  1  0.0  -3.043   6.064  19.919  0  0  0
 258  1  1  0.0  -4.768   4.827  18.689  0  0  0
 259  1  1  0.0  -6.026   3.118  17.458  0  0  0
 260  1  1  0.0  -6.695   1.103  16.228  0  0  0
 261  1  1  0.0  -6.708  -1.020  14.997  0  0  0
 262  1  1  0.0  -6.064  -3.043  13.766  0  0  0
 263  1  1  0.0  -4.827  -4.768  12.536  0  0  0
 264  1  1  0.0  -3.118  -6.026  11.305  0  0  0
 265  1  1  0.0  -1.103  -6.695  10.074  0  0  0
 266  1  1  0.0   1.020  -6.708   8.844  0  0  0
 267  1  1  0.0   3.043  -6.064   7.613  0  0  0
 268  1  1  0.0   4.768  -4.827   6.383  0  0  0
 269  1  1  0.0   6.026  -3.118   5.152  0  0  0
 270  1  1  0.0   6.695  -1.103   3.921  0  0  0
 271  1  1  0.0   6.564   1.715  28.534  0  0  0
 272  1  1  0.0   5.713   3.660  27.303  0  0  0
 273  1  1  0.0   4.303   5.246  26.073  0  0  0
 274  1  1  0.0   2.471   6.319  24.842  0  0  0
 275  1  1  0.0   0.397   6.773  23.611  0  0  0
 276  1  1  0.0  -1.715   6.564  22.381  0  0  0
 277  1  1  0.0  -3.660   5.713  21.150  0  0  0
 278  1  1  0.0  -5.246   4.303  19.919  0  0  0
 279  1  1  0.0  -6.319   2.471  18.689  0  0  0
 280  1  1  0.0  -6.773   0.397  17.458  0  0  0
 281  1  1  0.0  -6.564  -1.715  16.228  0  0  0
 282  1  1  0.0  -5.713  -3.660  14.997  0  0  0
 283  1  1  0.0  -4.303  -5.246  13.766  0  0  0
 284  1  1  0.0  -2.471  -6.319  12.536  0  0  0
 285  1  1  0.0  -0.397  -6.773  11.305  0  0  0
 286  1  1  0.0   1.715  -6.564  10.074  0  0  0
 287  1  1  0.0   3.660  -5.713   8.844  0  0  0
 288  1  1  0.0   5.246  -4.303   7.613  0  0  0
 289  1  1  0.0   6.319  -2.471   6.383  0  0  0
 290  1  1  0.0   6.773  -0.397   5.152  0  0  0
 291  1  1  0.0   6.708   1.020  29.764  0  0  0
 292  1  1  0.0   6.064   3.043  28.534  0  0  0
 293  1  1  0.0   4.827   4.768  27.303  0  0  0
 294  1  1  0.0   3.118   6.026  26.073  0  0  0
 295  1  1  0.0   1.103   6.695  24.842  0  0  0
 296  1  1  0.0  -1.020   6.708  23.611  0  0  0
 297  1  1  0.0  -3.043   6.064  22.381  0  0  0
 298  1  1  0.0  -4.768   4.827  21.150  0  0  0
 299  1  1  0.0  -6.026   3.118  19.919  0  0  0
 300  1  1  0.0  -6.695   1.103  18.689  0  0  0
 301  1  1  0.0  -6.708  -1.020  17.458  0  0  0
 302  1  1  0.0  -6.064  -3.043  16.228  0  0  0
 303  1  1  0.0  -4.827  -4.768  14.997  0  0  0
 304  1  1  0.0  -3.118  -6.026  13.766  0  0  0
 305  1  1  0.0  -1.103  -6.695  12.536  0  0  0
 306  1  1  0.0   1.020  -6.708  11.305  0  0  0
 307  1  1  0.0   3.043  -6.064  10.074  0  0  0
 308  1  1  0.0   4.768  -4.827   8.844  0  0  0
 309  1  1  0.0   6.026  -3.118   7.613  0  0  0
 310  1  1  0.0   6.695  -1.103   6.383  0  0  0
 311  1  1  0.0   6.564   1.715  30.995  0  0  0
 312  1  1  0.0   5.713   3.660  29.764  0  0  0
 313  1  1  0.0   4.303   5.246  28.534  0  0  0
 314  1  1  0.0   2.471   6.319  27.303  0  0  0
 315  1  1  0.0   0.397   6.773  26.073  0  0  0
 316  1  1  0.0  -1.715   6.564  24.842  0  0  0
 317  1  1  0.0  -3.660   5.713  23.611  0  0  0
 318  1  1  0.0  -5.246   4.303  22.381  0  0  0
 319  1  1  0.0  -6.319   2.471  21.150  0  0  0
 320  1  1  0.0  -6.773   0.397  19.919  0  0  0
 321  1  1  0.0  -6.564  -1.715  18.689  0  0  0
 322  1  1  0.0  -5.713  -3.660  17.458  0  0  0
 323  1  1  0.0  -4.303  -5.246  16.228  0  0  0
 324  1  1  0.0  -2.471  -6.319  14.997  0  0  0
 325  1  1  0.0  -0.397  -6.773  13.766  0  0  0
 326  1  1  0.0   1.715  -6.564  12.536  0  0  0
 327  1  1  0.0   3.660  -5.713  11.305  0  0  0
 328  1  1  0.0   5.246  -4.303  10.074  0  0  0
 329  1  1  0.0   6.319  -2.471   8.844  0  0  0
 330  1  1  0.0   6.773  -0.397   7.613  0  0  0
 331  1  1  0.0   6.708   1.020  32.226  0  0  0
 332  1  1  0.0   6.064   3.043  30.995  0  0  0
 333  1  1  0.0   4.827   4.768  29.764  0  0  0
 334  1  1  0.0   3.118   6.026  28.534  0  0  0
 335  1  1  0.0   1.103   6.695  27.303  0  0  0
 336  1  1  0.0  -1.020   6.708  26.073  0  0  0
 337  1  1  0.0  -3.043   6.064  24.842  0  0  0
 338  1  1  0.0  -4.768   4.827  23.611  0  0  0
 339  1  1  0.0  -6.026   3.118  22.381  0  0  0
 340  1  1  0.0  -6.695   1.103  21.150  0  0  0
 341  1  1  0.0  -6.708  -1.020  19.919  0  0  0
 342  1  1  0.0  -6.064  -3.043  18.689  0  0  0
 343  1  1  0.0  -4.827  -4.768  17.458  0  0  0
 344  1  1  0.0  -3.118  -6.026  16.228  0  0  0
 345  1  1  0.0  -1.103  -6.695  14.997  0  0  0
 346  1  1  0.0   1.020  -6.708  13.766  0  0  0
 347  1  1  0.0   3.043  -6.064  12.536  0  0  0
 348  1  1  0.0   4.768  -4.827  11.305  0  0  0
 349  1  1  0.0   6.026  -3.118  10.074  0  0  0
 350  1  1  0.0   6.695  -1.103   8.844  0  0  0
 351  1  1  0.0   6.564   1.715  33.456  0  0  0
 352  1  1  0.0   5.713   3.660  32.226  0  0  0
 353  1  1  0.0   4.303   5.246  30.995  0  0  0
 354  1  1  0.0   2.471   6.319  29.764  0  0  0
 355  1  1  0.0   0.397   6.773  28.534  0  0  0
 356  1  1  0.0  -1.715   6.564  27.303  0  0  0
 357  1  1  0.0  -3.660   5.713  26.073  0  0  0
 358  1  1  0.0  -5.246   4.303  24.842  0  0  0
 359  1  1  0.0  -6.319   2.471  23.611  0  0  0
 360  1  1  0.0  -6.773   0.397  22.381  0  0  0
 361  1  1  0.0  -6.564  -1.715  21.150  0  0  0
 362  1  1  0.0  -5.713  -3.660  19.919  0  0  0
 363  1  1  0.0  -4.303  -5.246  18.689  0  0  0
 364  1  1  0.0  -2.471  -6.319  17.458  0  0  0
 365  1  1  0.0  -0.397  -6.773  16.228  0  0  0
 366  1  1  0.0   1.715  -6.564  14.997  0  0  0
 367  1  1  0.0   3.660  -5.713  13.766  0  0  0
 368  1  1  0.0   5.246  -4.303  12.536  0  0  0
 369  1  1  0.0   6.319  -2.471  11.305  0  0  0
 370  1  1  0.0   6.773  -0.397  10.074  0  0  0
 371  1  1  0.0   6.708   1.020  34.687  0  0  0
 372  1  1  0.0   6.064   3.043  33.456  0  0  0
 373  1  1  0.0   4.827   4.768  32.226  0  0  0
 374  1  1  0.0   3.118   6.026  30.995  0  0  0
 375  1  1  0.0   1.103   6.695  29.764  0  0  0
 376  1  1  0.0  -1.020   6.708  28.534  0  0  0
 377  1  1  0.0  -3.043   6.064  27.303  0  0  0
 378  1  1  0.0  -4.768   4.827  26.073  0  0  0
 379  1  1  0.0  -6.026   3.118  24.842  0  0  0
 380  1  1  0.0  -6.695   1.103  23.611  0  0  0
 381  1  1  0.0  -6.708  -1.020  22.381  0  0  0
 382  1  1  0.0  -6.064  -3.043  21.150  0  0  0
 383  1  1  0.0  -4.827  -4.768  19.919  0  0  0
 384  1  1  0.0  -3.118  -6.026  18.689  0  0  0
 385  1  1  0.0  -1.103  -6.695  17.458  0  0  0
 386  1  1  0.0   1.020  -6.708  16.228  0  0  0
 387  1  1  0.0   3.043  -6.064  14.997  0  0  0
 388  1  1  0.0   4.768  -4.827  13.766  0  0  0
 389  1  1  0.0   6.026  -3.118  12.536  0  0  0
 390  1  1  0.0   6.695  -1.103  11.305  0  0  0
 391  1  1  0.0   6.564   1.715  35.918  0  0  0
 392  1  1  0.0   5.713   3.660  34.687  0  0  0
 393  1  1  0.0   4.303   5.246  33.456  0  0  0
 394  1  1  0.0   2.471   6.319  32.226  0  0  0
 395  1  1  0.0   0.397   6.773  30.995  0  0  0
 396  1  1  0.0  -1.715   6.564  29.764  0  0  0
 397  1  1  0.0  -3.660   5.713  28.534  0  0  0
 398  1  1  0.0  -5.246   4.303  27.303  0  0  0
 399  1  1  0.0  -6.319   2.471  26.073  0  0  0
 400  1  1  0.0  -6.773   0.397  24.842  0  0  0
 401  1  1  0.0  -6.564  -1.715  23.611  0  0  0
 402  1  1  0.0  -5.713  -3.660  22.381  0  0  0
 403  1  1  0.0  -4.303  -5.246  21.150  0  0  0
 404  1  1  0.0  -2.471  -6.319  19.919  0  0  0
 405  1  1  0.0  -0.397  -6.773  18.689  0  0  0
 406  1  1  0.0   1.715  -6.564  17.458  0  0  0
 407  1  1  0.0   3.660  -5.713  16.228  0  0  0
 408  1  1  0.0   5.246  -4.303  14.997  0  0  0
 409  1  1  0.0   6.319  -2.471  13.766  0  0  0
 410  1  1  0.0   6.773  -0.397  12.536  0  0  0
 411  1  1  0.0   6.708   1.020  37.148  0  0  0
 412  1  1  0.0   6.064   3.043  35.918  0  0  0
 413  1  1  0.0   4.827   4.768  34.687  0  0  0
 414  1  1  0.0   3.118   6.026  33.456  0  0  0
 415  1  1  0.0   1.103   6.695  32.226  0  0  0
 416  1  1  0.0  -1.020   6.708  30.995  0  0  0
 417  1  1  0.0  -3.043   6.064  29.764  0  0  0
 418  1  1  0.0  -4.768   4.827  28.534  0  0  0
 419  1  1  0.0  -6.026   3.118  27.303  0  0  0
 420  1  1  0.0  -6.695   1.103  26.073  0  0  0
 421  1  1  0.0  -6.708  -1.020  24.842  0  0  0
 422  1  1  0.0  -6.064  -3.043  23.611  0  0  0
 423  1  1  0.0  -4.827  -4.768  22.381  0  0  0
 424  1  1  0.0  -3.118  -6.026  21.150  0  0  0
 425  1  1  0.0  -1.103  -6.695  19.919  0  0  0
 426  1  1  0.0   1.020  -6.708  18.689  0  0  0
 427  1  1  0.0   3.043  -6.064  17.458  0  0  0
 428  1  1  0.0   4.768  -4.827  16.228  0  0  0
 429  1  1  0.0   6.026  -3.118  14.997  0  0  0
 430  1  1  0.0   6.695  -1.103  13.766  0  0  0
 431  1  1  0.0   6.564   1.715  38.379  0  0  0
 432  1  1  0.0   5.713   3.660  37.148  0  0  0
 433  1  1  0.0   4.303   5.246  35.918  0  0  0
 434  1  1  0.0   2.471   6.319  34.687  0  0  0
 435  1  1  0.0   0.397   6.773  33.456  0  0  0
 436  1  1  0.0  -1.715   6.564  32.226  0  0  0
 437  1  1  0.0  -3.660   5.713  30.995  0  0  0
 438  1  1  0.0  -5.246   4.303  29.764  0  0  0
 439  1  1  0.0  -6.319   2.471  28.534  0  0  0
 440  1  1  0.0  -6.773   0.397  27.303  0  0  0
 441  1  1  0.0  -6.564  -1.715  26.073  0  0  0
 442  1  1  0.0  -5.713  -3.660  24.842  0  0  0
 443  1  1  0.0  -4.303  -5.246  23.611  0  0  0
 444  1  1  0.0  -2.471  -6.319  22.381  0  0  0
 445  1  1  0.0  -0.397  -6.773  21.150  0  0  0
 446  1  1  0.0   1.715  -6.564  19.919  0  0  0
 447  1  1  0.0   3.660  -5.713  18.689  0  0  0
 448  1  1  0.0   5.246  -4.303  17.458  0  0  0
 449  1  1  0.0   6.319  -2.471  16.228  0  0  0
 450  1  1  0.0   6.773  -0.397  14.997  0  0  0
 451  1  1  0.0   6.708   1.020  39.609  0  0  0
 452  1  1  0.0   6.064   3.043  38.379  0  0  0
 453  1  1  0.0   4.827   4.768  37.148  0  0  0
 454  1  1  0.0   3.118   6.026  35.918  0  0  0
 455  1  1  0.0   1.103   6.695  34.687  0  0  0
 456  1  1  0.0  -1.020   6.708  33.456  0  0  0
 457  1  1  0.0  -3.043   6.064  32.226  0  0  0
 458  1  1  0.0  -4.768   4.827  30.995  0  0  0
 459  1  1  0.0  -6.026   3.118  29.764  0  0  0
 460  1  1  0.0  -6.695   1.103  28.534  0  0  0
 461  1  1  0.0  -6.708  -1.020  27.303  0  0  0
 462  1  1  0.0  -6.064  -3.043  26.073  0  0  0
 463  1  1  0.0  -4.827  -4.768  24.842  0  0  0
 464  1  1  0.0  -3.118  -6.026  23.611  0  0  0
 465  1  1  0.0  -1.103  -6.695  22.381  0  0  0
 466  1  1  0.0   1.020  -6.708  21.150  0  0  0
 467  1  1  0.0   3.043  -6.064  19.919  0  0  0
 468  1  1  0.0   4.768  -4.827  18.689  0  0  0
 469  1  1  0.0   6.026  -3.118  17.458  0  0  0
 470  1  1  0.0   6.695  -1.103  16.228  0  0  0
 471  1  1  0.0   6.564   1.715  40.840  0  0  0
 472  1  1  0.0   5.713   3.660  39.609  0  0  0
 473  1  1  0.0   4.303   5.246  38.379  0  0  0
 474  1  1  0.0   2.471   6.319  37.148  0  0  0
 475  1  1  0.0   0.397   6.773  35.918  0  0  0
 476  1  1  0.0  -1.715   6.564  34.687  0  0  0
 477  1  1  0.0  -3.660   5.713  33.456  0  0  0
 478  1  1  0.0  -5.246   4.303  32.226  0  0  0
 479  1  1  0.0  -6.319   2.471  30.995  0  0  0
 480  1  1  0.0  -6.773   0.397  29.764  0  0  0
 481  1  1  0.0  -6.564  -1.715  28.534  0  0  0
 482  1  1  0.0  -5.713  -3.660  27.303  0  0  0
 483  1  1  0.0  -4.303  -5.246  26.073  0  0  0
 484  1  1  0.0  -2.471  -6.319  24.842  0  0  0
 485  1  1  0.0  -0.397  -6.773  23.611  0  0  0
 486  1  1  0.0   1.715  -6.564  22.381  0  0  0
 487  1  1  0.0   3.660  -5.713  21.150  0  0  0
 488  1  1  0.0   5.246  -4.303  19.919  0  0  0
 489  1  1  0.0   6.319  -2.471  18.689  0  0  0
 490  1  1  0.0   6.773  -0.397  17.458  0  0  0
 491  1  1  0.0   6.708   1.020  42.071  0  0  0
 492  1  1  0.0   6.064   3.043  40.840  0  0  0
 493  1  1  0.0   4.827   4.768  39.609  0  0  0
 494  1  1  0.0   3.118   6.026  38.379  0  0  0
 495  1  1  0.0   1.103   6.695  37.148  0  0  0
 496  1  1  0.0  -1.020   6.708  35.918  0  0  0
 497  1  1  0.0  -3.043   6.064  34.687  0  0  0
 498  1  1  0.0  -4.768   4.827  33.456  0  0  0
 499  1  1  0.0  -6.026   3.118  32.226  0  0  0
 500  1  1  0.0  -6.695   1.103  30.995  0  0  0
 501  1  1  0.0  -6.708  -1.020  29.764  0  0  0
 502  1  1  0.0  -6.064  -3.043  28.534  0  0  0
 503  1  1  0.0  -4.827  -4.768  27.303  0  0  0
 504  1  1  0.0  -3.118  -6.026  26.073  0  0  0
 505  1  1  0.0  -1.103  -6.695  24.842  0  0  0
 506  1  1  0.0   1.020  -6.708  23.611  0  0  0
 507  1  1  0.0   3.043  -6.064  22.381  0  0  0
 508  1  1  0.0   4.768  -4.827  21.150  0  0  0
 509  1  1  0.0   6.026  -3.118  19.919  0  0  0
 510  1  1  0.0   6.695  -1.103  18.689  0  0  0
 511  1  1  0.0   6.564   1.715  43.301  0  0  0
 512  1  1  0.0   5.713   3.660  42.071  0  0  0
 513  1  1  0.0   4.303   5.246  40.840  0  0  0
 514  1  1  0.0   2.471   6.319  39.609  0  0  0
 515  1  1  0.0   0.397   6.773  38.379  0  0  0
 516  1  1  0.0  -1.715   6.564  37.148  0  0  0
 517  1  1  0.0  -3.660   5.713  35.918  0  0  0
 518  1  1  0.0  -5.246   4.303  34.687  0  0  0
 519  1  1  0.0  -6.319   2.471  33.456  0  0  0
 520  1  1  0.0  -6.773   0.397  32.226  0  0  0
 521  1  1  0.0  -6.564  -1.715  30.995  0  0  0
 522  1  1  0.0  -5.713  -3.660  29.764  0  0  0
 523  1  1  0.0  -4.303  -5.246  28.534  0  0  0
 524  1  1  0.0  -2.471  -6.319  27.303  0  0  0
 525  1  1  0.0  -0.397  -6.773  26.073  0  0  0
 526  1  1  0.0   1.715  -6.564  24.842  0  0  0
 527  1  1  0.0   3.660  -5.713  23.611  0  0  0
 528  1  1  0.0   5.246  -4.303  22.381  0  0  0
 529  1  1  0.0   6.319  -2.471  21.150  0  0  0
 530  1  1  0.0   6.773  -0.397  19.919  0  0  0
 531  1  1  0.0   6.708   1.020  44.532  0  0  0
 532  1  1  0.0   6.064   3.043  43.301  0  0  0
 533  1  1  0.0   4.827   4.768  42.071  0  0  0
 534  1  1  0.0   3.118   6.026  40.840  0  0  0
 535  1  1  0.0   1.103   6.695  39.609  0  0  0
 536  1  1  0.0  -1.020   6.708  38.379  0  0  0
 537  1  1  0.0  -3.043   6.064  37.148  0  0  0
 538  1  1  0.0  -4.768   4.827  35.918  0  0  0
 539  1  1  0.0  -6.026   3.118  34.687  0  0  0
 540  1  1  0.0  -6.695   1.103  33.456  0  0  0
 541  1  1  0.0  -6.708  -1.020  32.226  0  0  0
 542  1  1  0.0  -6.064  -3.043  30.995  0  0  0
 543  1  1  0.0  -4.827  -4.768  29.764  0  0  0
 544  1  1  0.0  -3.118  -6.026  28.534  0  0  0
 545  1  1  0.0  -1.103  -6.695  27.303  0  0  0
 546  1  1  0.0   1.020  -6.708  26.073  0  0  0
 547  1  1  0.0   3.043  -6.064  24.842  0  0  0
 548  1  1  0.0   4.768  -4.827  23.611  0  0  0
 549  1  1  0.0   6.026  -3.118  22.381  0  0  0
 550  1  1  0.0   6.695  -1.103  21.150  0  0  0
 551  1  1  0.0   6.564   1.715  45.763  0  0  0
 552  1  1  0.0   5.713   3.660  44.532  0  0  0
 553  1  1  0.0   4.303   5.246  43.301  0  0  0
 554  1  1  0.0   2.471   6.319  42.071  0  0  0
 555  1  1  0.0   0.397   6.773  40.840  0  0  0
 556  1  1  0.0  -1.715   6.564  39.609  0  0  0
 557  1  1  0.0  -3.660   5.713  38.379  0  0  0
 558  1  1  0.0  -5.246   4.303  37.148  0  0  0
 559  1  1  0.0  -6.319   2.471  35.918  0  0  0
 560  1  1  0.0  -6.773   0.397  34.687  0  0  0
 561  1  1  0.0  -6.564  -1.715  33.456  0  0  0
 562  1  1  0.0  -5.713  -3.660  32.226  0  0  0
 563  1  1  0.0  -4.303  -5.246  30.995  0  0  0
 564  1  1  0.0  -2.471  -6.319  29.764  0  0  0
 565  1  1  0.0  -0.397  -6.773  28.534  0  0  0
 566  1  1  0.0   1.715  -6.564  27.303  0  0  0
 567  1  1  0.0   3.660  -5.713  26.073  0  0  0
 568  1  1  0.0   5.246  -4.303  24.842  0  0  0
 569  1  1  0.0   6.319  -2.471  23.611  0  0  0
 570  1  1  0.0   6.773  -0.397  22.381  0  0  0
 571  1  1  0.0   6.708   1.020  46.993  0  0  0
 572  1  1  0.0   6.064   3.043  45.763  0  0  0
 573  1  1  0.0   4.827   4.768  44.532  0  0  0
 574  1  1  0.0   3.118   6.026  43.301  0  0  0
 575  1  1  0.0   1.103   6.695  42.071  0  0  0
 576  1  1  0.0  -1.020   6.708  40.840  0  0  0
 577  1  1  0.0  -3.043   6.064  39.609  0  0  0
 578  1  1  0.0  -4.768   4.827  38.379  0  0  0
 579  1  1  0.0  -6.026   3.118  37.148  0  0  0
 580  1  1  0.0  -6.695   1.103  35.918  0  0  0
 581  1  1  0.0  -6.708  -1.020  34.687  0  0  0
 582  1  1  0.0  -6.064  -3.043  33.456  0  0  0
 583  1  1  0.0  -4.827  -4.768  32.226  0  0  0
 584  1  1  0.0  -3.118  -6.026  30.995  0  0  0
 585  1  1  0.0  -1.103  -6.695  29.764  0  0  0
 586  1  1  0.0   1.020  -6.708  28.534  0  0  0
 587  1  1  0.0   3.043  -6.064  27.303  0  0  0
 588  1  1  0.0   4.768  -4.827  26.073  0  0  0
 589  1  1  0.0   6.026  -3.118  24.842  0  0  0
 590  1  1  0.0   6.695  -1.103  23.611  0  0  0
 591  1  1  0.0   6.564   1.715  48.224  0  0  0
 592  1  1  0.0   5.713   3.660  46.993  0  0  0
 593  1  1  0.0   4.303   5.246  45.763  0  0  0
 594  1  1  0.0   2.471   6.319  44.532  0  0  0
 595  1  1  0.0   0.397   6.773  43.301  0  0  0
 596  1  1  0.0  -1.715   6.564  42.071  0  0  0
 597  1  1  0.0  -3.660   5.713  40.840  0  0  0
 598  1  1  0.0  -5.246   4.303  39.609  0  0  0
 599  1  1  0.0  -6.319   2.471  38.379  0  0  0
 600  1  1  0.0  -6.773   0.397  37.148  0  0  0
 601  1  1  0.0  -6.564  -1.715  35.918  0  0  0
 602  1  1  0.0  -5.713  -3.660  34.687  0  0  0